 Gaussian 16, Revision C.01,
 Gaussian 16:  ES64L-G16RevC.01  3-Jul-2019

 --------------------------------
 #p freq b3lyp/6-311+g** em=gd3bj
 --------------------------------

 ---------------------------
 Title: C-b3lyp-d3-6-311+g**
 ---------------------------
 Symbolic Z-matrix:
 Charge =  0 Multiplicity = 1

                         Standard orientation:
 ---------------------------------------------------------------------
 Center     Atomic      Atomic             Coordinates (Angstroms)
 Number     Number       Type             X           Y           Z
 ---------------------------------------------------------------------
      1          6           0        0.000000    0.000000    0.000000
 ---------------------------------------------------------------------

 SCF Done:  E(RB3LYP) =  -37.7919085279     A.U. after    7 cycles

 Unable to determine electronic state:  partially filled degenerate orbitals.
 Alpha  occ. eigenvalues --  -10.32780  -0.55419  -0.22112
 Alpha virt. eigenvalues --   -0.15893  -0.15893   0.03413   0.07145   0.07524
 Alpha virt. eigenvalues --    0.07524   0.52810   0.52810   0.53661   0.63315
 Alpha virt. eigenvalues --    1.27764   1.27764   1.29706   1.29706   1.31660

 Mulliken charges:
               1
     1  C    0.000000
 Sum of Mulliken charges =   0.00000

 Dipole moment (field-independent basis, Debye):
    X=              0.0000    Y=              0.0000    Z=              0.0000  Tot=              0.0000
 Quadrupole moment (field-independent basis, Debye-Ang):
   XX=             -5.1634   YY=             -5.1634   ZZ=             -9.8050
   XY=              0.0000   XZ=             -0.0000   YZ=              0.0000

  Exact polarizability:       7.157       0.000       7.157       0.000       0.000      11.435
 Approx polarizability:      10.531      -0.000      10.531      -0.000      -0.000       9.879

 - Thermochemistry -
 -------------------
 Temperature   298.150 Kelvin.  Pressure   1.00000 Atm.
 Atom     1 has atomic number  6 and mass  12.00000
 Molecular mass:    12.00000 amu.
 Zero-point vibrational energy          0.0 (Joules/Mol)
                                    0.00000 (Kcal/Mol)
 Vibrational temperatures:
          (Kelvin)

 Zero-point correction=                           0.000000 (Hartree/Particle)
 Thermal correction to Energy=                    0.001416
 Thermal correction to Enthalpy=                  0.002360
 Thermal correction to Gibbs Free Energy=        -0.013508
 Sum of electronic and zero-point Energies=            -37.791909
 Sum of electronic and thermal Energies=               -37.790492
 Sum of electronic and thermal Enthalpies=             -37.789548
 Sum of electronic and thermal Free Energies=          -37.805416

                     E (Thermal)             CV                S
                      KCal/Mol        Cal/Mol-Kelvin    Cal/Mol-Kelvin
 Total                    0.889              2.981             33.398
 Electronic               0.000              0.000              0.000
 Translational            0.889              2.981             33.398
 Rotational               0.000              0.000              0.000
 Vibrational              0.000              0.000              0.000

 Optimization completed.
    -- Stationary point found.
 Normal termination of Gaussian 16 at Mon May 13 21:58:40 2024.
