 Gaussian 16, Revision C.01,
 Gaussian 16:  ES64L-G16RevC.01  3-Jul-2019

 --------------------------------
 #p freq b3lyp/6-311+g** em=gd3bj
 --------------------------------

 ---------------------------
 Title: F-b3lyp-d3-6-311+g**
 ---------------------------
 Symbolic Z-matrix:
 Charge =  0 Multiplicity = 2

                         Standard orientation:
 ---------------------------------------------------------------------
 Center     Atomic      Atomic             Coordinates (Angstroms)
 Number     Number       Type             X           Y           Z
 ---------------------------------------------------------------------
      1          9           0        0.000000    0.000000    0.000000
 ---------------------------------------------------------------------

 SCF Done:  E(UB3LYP) =  -99.7605801718     A.U. after    9 cycles

 Unable to determine electronic state:  an orbital has unidentified symmetry.
 Alpha  occ. eigenvalues --  -24.78986  -1.24002  -0.57138  -0.48378  -0.48378
 Alpha virt. eigenvalues --    0.11191   0.18028   0.18997   0.18997   1.17118
 Alpha virt. eigenvalues --    1.21593   1.21593   1.48250   3.63006   3.65211
 Alpha virt. eigenvalues --    3.65211   3.72173   3.72173   6.08025   6.15781

  Beta  occ. eigenvalues --  -24.75806  -1.14861  -0.45162  -0.45162
  Beta virt. eigenvalues --   -0.28110   0.11949   0.19280   0.19280   0.20435
  Beta virt. eigenvalues --    1.22975   1.22975   1.25516   1.52215   3.73876
  Beta virt. eigenvalues --    3.73876   3.75072   3.75072   3.77106   6.18451

 Mulliken charges and spin densities:
               1          2
     1  F    0.000000   1.000000
 Sum of Mulliken charges =   0.00000   1.00000

 Dipole moment (field-independent basis, Debye):
    X=              0.0000    Y=              0.0000    Z=              0.0000  Tot=              0.0000
 Quadrupole moment (field-independent basis, Debye-Ang):
   XX=             -5.0806   YY=             -4.1171   ZZ=             -5.0806
   XY=             -0.0000   XZ=             -0.0000   YZ=              0.0000

  Exact polarizability:       1.762       0.000       1.602       0.000       0.000       1.762
 Approx polarizability:       1.657      -0.000       1.656      -0.000      -0.000       1.657

 - Thermochemistry -
 -------------------
 Temperature   298.150 Kelvin.  Pressure   1.00000 Atm.
 Atom     1 has atomic number  9 and mass  18.99840
 Molecular mass:    18.99840 amu.
 Zero-point vibrational energy          0.0 (Joules/Mol)
                                    0.00000 (Kcal/Mol)
 Vibrational temperatures:
          (Kelvin)

 Zero-point correction=                           0.000000 (Hartree/Particle)
 Thermal correction to Energy=                    0.001416
 Thermal correction to Enthalpy=                  0.002360
 Thermal correction to Gibbs Free Energy=        -0.014813
 Sum of electronic and zero-point Energies=            -99.760580
 Sum of electronic and thermal Energies=               -99.759164
 Sum of electronic and thermal Enthalpies=             -99.758220
 Sum of electronic and thermal Free Energies=          -99.775393

                     E (Thermal)             CV                S
                      KCal/Mol        Cal/Mol-Kelvin    Cal/Mol-Kelvin
 Total                    0.889              2.981             36.145
 Electronic               0.000              0.000              1.377
 Translational            0.889              2.981             34.767
 Rotational               0.000              0.000              0.000
 Vibrational              0.000              0.000              0.000

 Optimization completed.
    -- Stationary point found.
 Normal termination of Gaussian 16 at Sun May 19 14:52:25 2024.
