 Gaussian 16, Revision C.01,
 Gaussian 16:  ES64L-G16RevC.01  3-Jul-2019

 --------------------------------
 #p freq b3lyp/6-311+g** em=gd3bj
 --------------------------------

 ---------------------------
 Title: N-b3lyp-d3-6-311+g**
 ---------------------------
 Symbolic Z-matrix:
 Charge =  0 Multiplicity = 2

                         Standard orientation:
 ---------------------------------------------------------------------
 Center     Atomic      Atomic             Coordinates (Angstroms)
 Number     Number       Type             X           Y           Z
 ---------------------------------------------------------------------
      1          7           0        0.000000    0.000000    0.000000
 ---------------------------------------------------------------------

 SCF Done:  E(UB3LYP) =  -54.4992608581     A.U. after   10 cycles

 Unable to determine electronic state:  an orbital has unidentified symmetry.
 Alpha  occ. eigenvalues --  -14.46213  -0.77505  -0.36486  -0.30072
 Alpha virt. eigenvalues --   -0.22957   0.05679   0.10307   0.10923   0.11043
 Alpha virt. eigenvalues --    0.71686   0.73701   0.75091   0.89413   1.85341
 Alpha virt. eigenvalues --    1.86209   1.89430   1.90342   1.91995   3.64273

  Beta  occ. eigenvalues --  -14.44120  -0.70538  -0.27891
  Beta virt. eigenvalues --   -0.20728  -0.14957   0.06283   0.11095   0.11338
  Beta virt. eigenvalues --    0.12407   0.74818   0.76070   0.78438   0.92525
  Beta virt. eigenvalues --    1.91356   1.91621   1.93854   1.96472   1.97607

 Mulliken charges and spin densities:
               1          2
     1  N   -0.000000   1.000000
 Sum of Mulliken charges =  -0.00000   1.00000

 Dipole moment (field-independent basis, Debye):
    X=              0.0000    Y=              0.0000    Z=              0.0000  Tot=              0.0000
 Quadrupole moment (field-independent basis, Debye-Ang):
   XX=             -7.5316   YY=             -4.3337   ZZ=             -5.7254
   XY=             -0.0000   XZ=              0.0000   YZ=              0.0000

  Exact polarizability:       5.649      -0.000       3.913      -0.000      -0.000       4.562
 Approx polarizability:       5.077      -0.000       5.832      -0.000      -0.000       4.432

 - Thermochemistry -
 -------------------
 Temperature   298.150 Kelvin.  Pressure   1.00000 Atm.
 Atom     1 has atomic number  7 and mass  14.00307
 Molecular mass:    14.00307 amu.
 Zero-point vibrational energy          0.0 (Joules/Mol)
                                    0.00000 (Kcal/Mol)
 Vibrational temperatures:
          (Kelvin)

 Zero-point correction=                           0.000000 (Hartree/Particle)
 Thermal correction to Energy=                    0.001416
 Thermal correction to Enthalpy=                  0.002360
 Thermal correction to Gibbs Free Energy=        -0.014381
 Sum of electronic and zero-point Energies=            -54.499261
 Sum of electronic and thermal Energies=               -54.497845
 Sum of electronic and thermal Enthalpies=             -54.496900
 Sum of electronic and thermal Free Energies=          -54.513642

                     E (Thermal)             CV                S
                      KCal/Mol        Cal/Mol-Kelvin    Cal/Mol-Kelvin
 Total                    0.889              2.981             35.235
 Electronic               0.000              0.000              1.377
 Translational            0.889              2.981             33.858
 Rotational               0.000              0.000              0.000
 Vibrational              0.000              0.000              0.000

 Optimization completed.
    -- Stationary point found.
 Normal termination of Gaussian 16 at Sun May 19 14:52:40 2024.
