 Gaussian 16, Revision C.01,
 Gaussian 16:  ES64L-G16RevC.01  3-Jul-2019

 --------------------------------
 #p freq b3lyp/6-311+g** em=gd3bj
 --------------------------------

 ---------------------------
 Title: O-b3lyp-d3-6-311+g**
 ---------------------------
 Symbolic Z-matrix:
 Charge =  0 Multiplicity = 1

                         Standard orientation:
 ---------------------------------------------------------------------
 Center     Atomic      Atomic             Coordinates (Angstroms)
 Number     Number       Type             X           Y           Z
 ---------------------------------------------------------------------
      1          8           0        0.000000    0.000000    0.000000
 ---------------------------------------------------------------------

 SCF Done:  E(RB3LYP) =  -74.9889062647     A.U. after    8 cycles

 Unable to determine electronic state:  partially filled degenerate orbitals.
 Alpha  occ. eigenvalues --  -19.28750  -0.96349  -0.38163  -0.38163
 Alpha virt. eigenvalues --   -0.30102   0.08303   0.14552   0.14678   0.14678
 Alpha virt. eigenvalues --    0.94669   0.96462   0.96462   1.17244   2.69887
 Alpha virt. eigenvalues --    2.69950   2.69950   2.74967   2.74967   4.79123

 Mulliken charges:
               1
     1  O    0.000000
 Sum of Mulliken charges =   0.00000

 Dipole moment (field-independent basis, Debye):
    X=              0.0000    Y=              0.0000    Z=              0.0000  Tot=              0.0000
 Quadrupole moment (field-independent basis, Debye-Ang):
   XX=             -3.7994   YY=             -6.0755   ZZ=             -6.0755
   XY=              0.0000   XZ=             -0.0000   YZ=             -0.0000

  Exact polarizability:       2.286      -0.000       2.908       0.000      -0.000       2.908
 Approx polarizability:       3.440      -0.000       2.688      -0.000      -0.000       2.688

 - Thermochemistry -
 -------------------
 Temperature   298.150 Kelvin.  Pressure   1.00000 Atm.
 Atom     1 has atomic number  8 and mass  15.99491
 Molecular mass:    15.99491 amu.
 Zero-point vibrational energy          0.0 (Joules/Mol)
                                    0.00000 (Kcal/Mol)
 Vibrational temperatures:
          (Kelvin)

 Zero-point correction=                           0.000000 (Hartree/Particle)
 Thermal correction to Energy=                    0.001416
 Thermal correction to Enthalpy=                  0.002360
 Thermal correction to Gibbs Free Energy=        -0.013915
 Sum of electronic and zero-point Energies=            -74.988906
 Sum of electronic and thermal Energies=               -74.987490
 Sum of electronic and thermal Enthalpies=             -74.986546
 Sum of electronic and thermal Free Energies=          -75.002821

                     E (Thermal)             CV                S
                      KCal/Mol        Cal/Mol-Kelvin    Cal/Mol-Kelvin
 Total                    0.889              2.981             34.254
 Electronic               0.000              0.000              0.000
 Translational            0.889              2.981             34.254
 Rotational               0.000              0.000              0.000
 Vibrational              0.000              0.000              0.000

 Optimization completed.
    -- Stationary point found.
 Normal termination of Gaussian 16 at Sun May 19 14:52:34 2024.
